3
	Energy:      -4.8871580
A         -8.26229        0.26802        0.02156
B         -7.01999        1.14270        0.01765
A         -5.74990        0.31257       -0.06071

